CRYSTAL
PRIMVEC
     25.0000000000      0.0000000000      0.0000000000
      0.0000000000     25.0000000000      0.0000000000
      0.0000000000      0.0000000000     12.9992467360
PRIMCOORD
11 1
72     12.4999888500     12.4991459000      4.2175742103
72     12.4999917000     12.4991511750      8.7816803772
34     12.5000019250     14.2214061000      6.4996205732
34     11.0238525500     11.6260592500      6.4996187403
34     13.9761205250     11.6260638000      6.4996677734
34     10.6280594750     13.5791182250      2.9516461027
34     12.5000152250     10.3462782750      2.9347622651
34     14.3719558500     13.5790964750      2.9516722572
34     10.6280651250     13.5791339000     10.0476616777
34     12.5000035750     10.3462564750     10.0644640231
34     14.3719314750     13.5791201000     10.0475984754
