CRYSTAL
PRIMVEC
     25.000000000     0.000000000     0.000000000
      0.000000000    25.000000000     0.000000000
      0.000000000     0.000000000    25.000000000
PRIMCOORD
  11 1
  72     12.499259625    12.453737000    10.429082000
  72     12.500326075    12.453551275    14.570115200
  34     12.499593075    14.378676300    12.499982750
  34     10.869218725    11.396860800    12.500078000
  34     14.130128325    11.396509675    12.500035875
  34     10.854280025    13.700881175     8.887732250
  34     12.499721475    10.251848800     9.105817150
  34     14.144973450    13.700919400     8.888576925
  34     10.855389575    13.700985900    16.111542225
  34     12.500306550    10.252490750    15.894732500
  34     14.145184400    13.700662250    16.111672150
