CRYSTAL
PRIMVEC
     25.0000000000      0.0000000000      0.0000000000
      0.0000000000     25.0000000000      0.0000000000
      0.0000000000      0.0000000000     25.0000000000
PRIMCOORD
11 1
72     12.5000046250     12.4988050250     10.5131315250
72     12.4999973500     12.4988059750     14.4868693000
34     12.5000088750     14.4522518250     12.5000011250
34     10.8168154000     11.5170615750     12.5000018250
34     14.1831659000     11.5170571750     12.5000015750
34     10.7396426750     13.5419614750      9.0199731250
34     12.4999988250     10.4655481500      9.0025557500
34     14.2603493750     13.5419712750      9.0199519250
34     10.7396333750     13.5419691500     15.9800225250
34     12.5000024000     10.4655552500     15.9974467750
34     14.2603503500     13.5419730250     15.9800386250
